<?xml version="1.0" encoding="UTF-8"?>

<!-- generated on 2024-09-13 12:37:10 by Eclipse SUMO sumo Version 1.20.0
<configuration xmlns:xsi="http://www.w3.org/2001/XMLSchema-instance" xsi:noNamespaceSchemaLocation="http://sumo.dlr.de/xsd/sumoConfiguration.xsd">

    <input>
        <net-file value="osm.net.xml.gz"/>
        <route-files value="osm.passenger.trips.xml"/>
        <additional-files value="park.add.xml"/>
    </input>

    <output>
        <fcd-output value="output/fcd.out.xml"/>
        <fcd-output.acceleration value="true"/>
        <amitran-output value="output/amitran.out.xml"/>
        <tripinfo-output value="output/results.out.xml"/>
    </output>

    <processing>
        <ignore-route-errors value="true"/>
        <tls.actuated.jam-threshold value="30"/>
    </processing>

    <routing>
        <device.rerouting.adaptation-steps value="18"/>
        <device.rerouting.adaptation-interval value="10"/>
    </routing>

    <report>
        <verbose value="true"/>
        <duration-log.statistics value="true"/>
        <no-step-log value="true"/>
    </report>

    <gui_only>
        <gui-settings-file value="osm.view.xml"/>
    </gui_only>

</configuration>
-->

<fcd-export xmlns:xsi="http://www.w3.org/2001/XMLSchema-instance" xsi:noNamespaceSchemaLocation="http://sumo.dlr.de/xsd/fcd_file.xsd">
    <timestep time="0.00"/>
    <timestep time="1.00"/>
    <timestep time="2.00"/>
    <timestep time="3.00"/>
    <timestep time="4.00"/>
    <timestep time="5.00"/>
    <timestep time="6.00"/>
    <timestep time="7.00"/>
    <timestep time="8.00"/>
    <timestep time="9.00"/>
    <timestep time="10.00">
        <vehicle id="trip" x="454.93" y="430.50" angle="74.63" type="veh_passenger" speed="0.00" pos="5.10" lane="begin_0" slope="0.00" acceleration="0.00"/>
    </timestep>
    <timestep time="11.00">
        <vehicle id="trip" x="457.11" y="431.10" angle="74.63" type="veh_passenger" speed="2.25" pos="7.35" lane="begin_0" slope="0.00" acceleration="2.25"/>
    </timestep>
    <timestep time="12.00">
        <vehicle id="trip" x="460.62" y="435.70" angle="71.18" type="veh_passenger" speed="4.72" pos="12.07" lane="begin_1" slope="0.00" acceleration="2.48"/>
    </timestep>
    <timestep time="13.00">
        <vehicle id="trip" x="466.28" y="438.06" angle="67.32" type="veh_passenger" speed="6.17" pos="18.24" lane="begin_1" slope="0.00" acceleration="1.44"/>
    </timestep>
    <timestep time="14.00">
        <vehicle id="trip" x="473.48" y="441.07" angle="67.32" type="veh_passenger" speed="7.84" pos="26.08" lane="begin_1" slope="0.00" acceleration="1.67"/>
    </timestep>
    <timestep time="15.00">
        <vehicle id="trip" x="483.01" y="445.05" angle="67.32" type="veh_passenger" speed="10.38" pos="36.46" lane="begin_1" slope="0.00" acceleration="2.54"/>
    </timestep>
    <timestep time="16.00">
        <vehicle id="trip" x="494.37" y="449.80" angle="67.31" type="veh_passenger" speed="12.34" pos="2.76" lane="75679299#1_1" slope="0.00" acceleration="1.96"/>
    </timestep>
    <timestep time="17.00">
        <vehicle id="trip" x="507.81" y="455.41" angle="67.33" type="veh_passenger" speed="14.56" pos="17.32" lane="75679299#1_1" slope="0.00" acceleration="2.22"/>
    </timestep>
    <timestep time="18.00">
        <vehicle id="trip" x="523.56" y="461.99" angle="67.33" type="veh_passenger" speed="17.07" pos="34.39" lane="75679299#1_1" slope="0.00" acceleration="2.51"/>
    </timestep>
    <timestep time="19.00">
        <vehicle id="trip" x="541.88" y="467.95" angle="81.43" type="veh_passenger" speed="19.41" pos="7.76" lane=":6512225186_0_0" slope="0.00" acceleration="2.34"/>
    </timestep>
    <timestep time="20.00">
        <vehicle id="trip" x="561.96" y="475.93" angle="68.04" type="veh_passenger" speed="21.61" pos="21.16" lane="693637403_0" slope="0.00" acceleration="2.20"/>
    </timestep>
    <timestep time="21.00">
        <vehicle id="trip" x="583.80" y="484.73" angle="68.04" type="veh_passenger" speed="23.55" pos="44.71" lane="693637403_0" slope="0.00" acceleration="1.94"/>
    </timestep>
    <timestep time="22.00">
        <vehicle id="trip" x="605.20" y="493.56" angle="66.25" type="veh_passenger" speed="23.15" pos="5.91" lane=":cluster_2449854645_860796300_2_0" slope="0.00" acceleration="-0.40"/>
    </timestep>
    <timestep time="23.00">
        <vehicle id="trip" x="626.27" y="503.35" angle="64.65" type="veh_passenger" speed="23.24" pos="5.46" lane="693637406#3_0" slope="0.00" acceleration="0.09"/>
    </timestep>
    <timestep time="24.00">
        <vehicle id="trip" x="646.76" y="513.05" angle="64.65" type="veh_passenger" speed="22.67" pos="28.13" lane="693637406#3_0" slope="0.00" acceleration="-0.57"/>
    </timestep>
    <timestep time="25.00">
        <vehicle id="trip" x="667.67" y="522.97" angle="64.65" type="veh_passenger" speed="23.15" pos="51.27" lane="693637406#3_0" slope="0.00" acceleration="0.48"/>
    </timestep>
    <timestep time="26.00">
        <vehicle id="trip" x="687.64" y="533.12" angle="62.94" type="veh_passenger" speed="22.40" pos="21.16" lane=":cluster_10123122499_10123122500_10123122501_10123122502_#6more_7_0" slope="0.00" acceleration="-0.74"/>
    </timestep>
    <timestep time="27.00">
        <vehicle id="trip" x="708.20" y="543.61" angle="63.02" type="veh_passenger" speed="23.08" pos="10.51" lane="693637406#7_0" slope="0.00" acceleration="0.67"/>
    </timestep>
    <timestep time="28.00">
        <vehicle id="trip" x="728.49" y="554.35" angle="60.38" type="veh_passenger" speed="22.97" pos="33.48" lane="693637406#7_0" slope="0.00" acceleration="-0.11"/>
    </timestep>
    <timestep time="29.00">
        <vehicle id="trip" x="748.29" y="565.61" angle="60.38" type="veh_passenger" speed="22.78" pos="56.26" lane="693637406#7_0" slope="0.00" acceleration="-0.19"/>
    </timestep>
    <timestep time="30.00">
        <vehicle id="trip" x="766.44" y="578.87" angle="53.28" type="veh_passenger" speed="22.49" pos="78.74" lane="693637406#7_0" slope="0.00" acceleration="-0.29"/>
    </timestep>
    <timestep time="31.00">
        <vehicle id="trip" x="785.06" y="593.00" angle="51.46" type="veh_passenger" speed="23.38" pos="10.71" lane=":cluster_10125157367_10125157368_11638423916_913720979_1_0" slope="0.00" acceleration="0.89"/>
    </timestep>
    <timestep time="32.00">
        <vehicle id="trip" x="801.69" y="607.83" angle="48.08" type="veh_passenger" speed="22.29" pos="18.56" lane="693637406#10_0" slope="0.00" acceleration="-1.08"/>
    </timestep>
    <timestep time="33.00">
        <vehicle id="trip" x="818.98" y="623.45" angle="47.70" type="veh_passenger" speed="23.29" pos="8.13" lane="693637406#11_0" slope="0.00" acceleration="1.00"/>
    </timestep>
    <timestep time="34.00">
        <vehicle id="trip" x="836.13" y="638.76" angle="49.12" type="veh_passenger" speed="22.98" pos="7.76" lane=":8710967029_3_0" slope="0.00" acceleration="-0.31"/>
    </timestep>
    <timestep time="35.00">
        <vehicle id="trip" x="853.15" y="653.47" angle="49.16" type="veh_passenger" speed="22.50" pos="20.80" lane="693637406#12_0" slope="0.00" acceleration="-0.49"/>
    </timestep>
    <timestep time="36.00">
        <vehicle id="trip" x="870.08" y="668.11" angle="49.16" type="veh_passenger" speed="22.39" pos="43.19" lane="693637406#12_0" slope="0.00" acceleration="-0.11"/>
    </timestep>
    <timestep time="37.00">
        <vehicle id="trip" x="887.90" y="683.51" angle="49.16" type="veh_passenger" speed="23.55" pos="66.74" lane="693637406#12_0" slope="0.00" acceleration="1.17"/>
    </timestep>
    <timestep time="38.00">
        <vehicle id="trip" x="904.52" y="699.54" angle="40.50" type="veh_passenger" speed="23.13" pos="1.60" lane="693637406#13_1" slope="0.00" acceleration="-0.43"/>
    </timestep>
    <timestep time="39.00">
        <vehicle id="trip" x="919.56" y="717.41" angle="40.09" type="veh_passenger" speed="23.45" pos="25.05" lane="693637406#13_1" slope="0.00" acceleration="0.32"/>
    </timestep>
    <timestep time="40.00">
        <vehicle id="trip" x="932.87" y="735.77" angle="32.96" type="veh_passenger" speed="22.82" pos="47.87" lane="693637406#13_1" slope="0.00" acceleration="-0.63"/>
    </timestep>
    <timestep time="41.00">
        <vehicle id="trip" x="944.66" y="755.16" angle="28.48" type="veh_passenger" speed="23.50" pos="6.73" lane="693637406#15_0" slope="0.00" acceleration="0.69"/>
    </timestep>
    <timestep time="42.00">
        <vehicle id="trip" x="955.59" y="775.33" angle="28.46" type="veh_passenger" speed="22.94" pos="10.04" lane="693637406#16_0" slope="0.00" acceleration="-0.56"/>
    </timestep>
    <timestep time="43.00">
        <vehicle id="trip" x="967.02" y="793.02" angle="36.87" type="veh_passenger" speed="21.11" pos="31.15" lane="693637406#16_0" slope="0.00" acceleration="-1.83"/>
    </timestep>
    <timestep time="44.00">
        <vehicle id="trip" x="978.82" y="805.95" angle="44.46" type="veh_passenger" speed="17.54" pos="48.69" lane="693637406#16_0" slope="0.00" acceleration="-3.58"/>
    </timestep>
    <timestep time="45.00">
        <vehicle id="trip" x="988.65" y="814.50" angle="50.01" type="veh_passenger" speed="13.04" pos="7.20" lane=":3366322624_1_0" slope="0.00" acceleration="-4.50"/>
    </timestep>
    <timestep time="46.00">
        <vehicle id="trip" x="995.19" y="819.99" angle="50.01" type="veh_passenger" speed="8.54" pos="15.74" lane=":3366322624_1_0" slope="0.00" acceleration="-4.50"/>
    </timestep>
    <timestep time="47.00">
        <vehicle id="trip" x="1003.35" y="826.68" angle="49.65" type="veh_passenger" speed="10.55" pos="4.10" lane=":3366322622_1_0" slope="0.00" acceleration="2.01"/>
    </timestep>
    <timestep time="48.00">
        <vehicle id="trip" x="1014.64" y="832.23" angle="69.95" type="veh_passenger" speed="12.76" pos="4.95" lane="1013410331_0" slope="0.00" acceleration="2.21"/>
    </timestep>
    <timestep time="49.00">
        <vehicle id="trip" x="1024.85" y="841.93" angle="32.98" type="veh_passenger" speed="14.34" pos="8.14" lane=":893416414_1_0" slope="0.00" acceleration="1.58"/>
    </timestep>
    <timestep time="50.00">
        <vehicle id="trip" x="1027.04" y="857.03" angle="354.21" type="veh_passenger" speed="15.66" pos="15.34" lane="535719980_0" slope="0.00" acceleration="1.32"/>
    </timestep>
    <timestep time="51.00">
        <vehicle id="trip" x="1019.45" y="873.19" angle="330.41" type="veh_passenger" speed="18.03" pos="9.38" lane=":5191743052_2_0" slope="0.00" acceleration="2.38"/>
    </timestep>
    <timestep time="52.00">
        <vehicle id="trip" x="1014.57" y="892.44" angle="346.05" type="veh_passenger" speed="19.93" pos="16.03" lane="75679256#0_0" slope="0.00" acceleration="1.89"/>
    </timestep>
    <timestep time="53.00">
        <vehicle id="trip" x="1015.67" y="913.75" angle="12.63" type="veh_passenger" speed="21.68" pos="37.71" lane="75679256#0_0" slope="0.00" acceleration="1.75"/>
    </timestep>
    <timestep time="54.00">
        <vehicle id="trip" x="1022.59" y="935.54" angle="17.77" type="veh_passenger" speed="22.86" pos="5.17" lane=":6226438952_0_0" slope="0.00" acceleration="1.18"/>
    </timestep>
    <timestep time="55.00">
        <vehicle id="trip" x="1029.51" y="957.50" angle="15.64" type="veh_passenger" speed="23.03" pos="4.58" lane=":893416352_0_0" slope="0.00" acceleration="0.18"/>
    </timestep>
    <timestep time="56.00">
        <vehicle id="trip" x="1034.30" y="979.71" angle="12.47" type="veh_passenger" speed="22.72" pos="2.35" lane=":5419179011_0_0" slope="0.00" acceleration="-0.32"/>
    </timestep>
    <timestep time="57.00">
        <vehicle id="trip" x="1038.72" y="1001.62" angle="5.14" type="veh_passenger" speed="22.39" pos="16.37" lane="75679256#3_0" slope="0.00" acceleration="-0.32"/>
    </timestep>
    <timestep time="58.00">
        <vehicle id="trip" x="1040.63" y="1024.93" angle="4.69" type="veh_passenger" speed="23.39" pos="39.76" lane="75679256#3_0" slope="0.00" acceleration="0.99"/>
    </timestep>
    <timestep time="59.00">
        <vehicle id="trip" x="1040.87" y="1048.08" angle="356.83" type="veh_passenger" speed="23.20" pos="62.96" lane="75679256#3_0" slope="0.00" acceleration="-0.19"/>
    </timestep>
    <timestep time="60.00">
        <vehicle id="trip" x="1039.37" y="1070.59" angle="353.87" type="veh_passenger" speed="22.58" pos="85.54" lane="75679256#3_0" slope="0.00" acceleration="-0.62"/>
    </timestep>
    <timestep time="61.00">
        <vehicle id="trip" x="1035.60" y="1093.80" angle="350.77" type="veh_passenger" speed="23.51" pos="109.05" lane="75679256#3_0" slope="0.00" acceleration="0.93"/>
    </timestep>
    <timestep time="62.00">
        <vehicle id="trip" x="1030.89" y="1116.51" angle="347.72" type="veh_passenger" speed="23.20" pos="16.51" lane="75679256#4_0" slope="0.00" acceleration="-0.30"/>
    </timestep>
    <timestep time="63.00">
        <vehicle id="trip" x="1025.49" y="1138.94" angle="345.19" type="veh_passenger" speed="23.07" pos="39.58" lane="75679256#4_0" slope="0.00" acceleration="-0.13"/>
    </timestep>
    <timestep time="64.00">
        <vehicle id="trip" x="1020.15" y="1159.12" angle="345.19" type="veh_passenger" speed="20.87" pos="60.46" lane="75679256#4_0" slope="0.00" acceleration="-2.20"/>
    </timestep>
    <timestep time="65.00">
        <vehicle id="trip" x="1015.62" y="1174.83" angle="341.04" type="veh_passenger" speed="16.37" pos="76.83" lane="75679256#4_0" slope="0.00" acceleration="-4.50"/>
    </timestep>
    <timestep time="66.00">
        <vehicle id="trip" x="1011.40" y="1185.93" angle="339.17" type="veh_passenger" speed="11.87" pos="88.70" lane="75679256#4_0" slope="0.00" acceleration="-4.50"/>
    </timestep>
    <timestep time="67.00">
        <vehicle id="trip" x="1008.68" y="1193.09" angle="339.17" type="veh_passenger" speed="7.66" pos="96.37" lane="75679256#4_0" slope="0.00" acceleration="-4.21"/>
    </timestep>
    <timestep time="68.00">
        <vehicle id="trip" x="1004.78" y="1202.49" angle="336.69" type="veh_passenger" speed="10.17" pos="6.65" lane=":5419179010_0_0" slope="0.00" acceleration="2.51"/>
    </timestep>
    <timestep time="69.00">
        <vehicle id="trip" x="1000.10" y="1213.38" angle="336.75" type="veh_passenger" speed="11.85" pos="10.54" lane="75679256#5_0" slope="0.00" acceleration="1.68"/>
    </timestep>
    <timestep time="70.00">
        <vehicle id="trip" x="993.77" y="1226.27" angle="332.53" type="veh_passenger" speed="14.36" pos="24.91" lane="75679256#5_0" slope="0.00" acceleration="2.51"/>
    </timestep>
    <timestep time="71.00">
        <vehicle id="trip" x="985.92" y="1240.80" angle="331.15" type="veh_passenger" speed="16.51" pos="5.24" lane="75679256#6_0" slope="0.00" acceleration="2.15"/>
    </timestep>
    <timestep time="72.00">
        <vehicle id="trip" x="976.63" y="1256.21" angle="327.73" type="veh_passenger" speed="18.00" pos="4.14" lane="75679256#7_0" slope="0.00" acceleration="1.48"/>
    </timestep>
    <timestep time="73.00">
        <vehicle id="trip" x="965.87" y="1273.24" angle="327.73" type="veh_passenger" speed="20.14" pos="24.28" lane="75679256#7_0" slope="0.00" acceleration="2.15"/>
    </timestep>
    <timestep time="74.00">
        <vehicle id="trip" x="953.72" y="1292.30" angle="331.23" type="veh_passenger" speed="22.53" pos="1.35" lane=":10125157357_0_0" slope="0.00" acceleration="2.38"/>
    </timestep>
    <timestep time="75.00">
        <vehicle id="trip" x="941.65" y="1311.09" angle="310.87" type="veh_passenger" speed="23.33" pos="6.00" lane="75679256#9_0" slope="0.00" acceleration="0.80"/>
    </timestep>
    <timestep time="76.00">
        <vehicle id="trip" x="931.34" y="1330.40" angle="346.27" type="veh_passenger" speed="22.40" pos="28.39" lane="75679256#9_0" slope="0.00" acceleration="-0.93"/>
    </timestep>
    <timestep time="77.00">
        <vehicle id="trip" x="928.69" y="1353.59" angle="338.18" type="veh_passenger" speed="22.72" pos="1.67" lane="75679256#10_1" slope="0.00" acceleration="0.32"/>
    </timestep>
    <timestep time="78.00">
        <vehicle id="trip" x="935.61" y="1376.22" angle="23.84" type="veh_passenger" speed="23.38" pos="25.05" lane="75679256#10_1" slope="0.00" acceleration="0.66"/>
    </timestep>
    <timestep time="79.00">
        <vehicle id="trip" x="949.22" y="1395.09" angle="42.95" type="veh_passenger" speed="22.99" pos="1.21" lane=":893416300_0_1" slope="0.00" acceleration="-0.39"/>
    </timestep>
    <timestep time="80.00">
        <vehicle id="trip" x="968.40" y="1406.55" angle="69.96" type="veh_passenger" speed="22.36" pos="14.18" lane="906049246_1" slope="0.00" acceleration="-0.63"/>
    </timestep>
    <timestep time="81.00">
        <vehicle id="trip" x="991.32" y="1409.99" angle="90.21" type="veh_passenger" speed="22.72" pos="36.90" lane="906049246_1" slope="0.00" acceleration="0.36"/>
    </timestep>
    <timestep time="82.00">
        <vehicle id="trip" x="1014.96" y="1406.83" angle="99.06" type="veh_passenger" speed="23.43" pos="2.67" lane="447326322#0_0" slope="0.00" acceleration="0.71"/>
    </timestep>
    <timestep time="83.00">
        <vehicle id="trip" x="1038.04" y="1403.16" angle="99.04" type="veh_passenger" speed="23.37" pos="26.05" lane="447326322#0_0" slope="0.00" acceleration="-0.06"/>
    </timestep>
    <timestep time="84.00">
        <vehicle id="trip" x="1060.08" y="1399.03" angle="100.82" type="veh_passenger" speed="22.43" pos="48.47" lane="447326322#0_0" slope="0.00" acceleration="-0.95"/>
    </timestep>
    <timestep time="85.00">
        <vehicle id="trip" x="1082.00" y="1394.84" angle="100.82" type="veh_passenger" speed="22.31" pos="70.78" lane="447326322#0_0" slope="0.00" acceleration="-0.12"/>
    </timestep>
    <timestep time="86.00">
        <vehicle id="trip" x="1104.52" y="1390.53" angle="100.82" type="veh_passenger" speed="22.93" pos="93.71" lane="447326322#0_0" slope="0.00" acceleration="0.62"/>
    </timestep>
    <timestep time="87.00">
        <vehicle id="trip" x="1126.43" y="1386.34" angle="100.82" type="veh_passenger" speed="22.30" pos="116.02" lane="447326322#0_0" slope="0.00" acceleration="-0.63"/>
    </timestep>
    <timestep time="88.00">
        <vehicle id="trip" x="1149.39" y="1381.95" angle="100.82" type="veh_passenger" speed="23.38" pos="139.40" lane="447326322#0_0" slope="0.00" acceleration="1.08"/>
    </timestep>
    <timestep time="89.00">
        <vehicle id="trip" x="1171.90" y="1377.65" angle="100.82" type="veh_passenger" speed="22.91" pos="162.32" lane="447326322#0_0" slope="0.00" acceleration="-0.47"/>
    </timestep>
    <timestep time="90.00">
        <vehicle id="trip" x="1194.39" y="1373.35" angle="100.82" type="veh_passenger" speed="22.90" pos="185.22" lane="447326322#0_0" slope="0.00" acceleration="-0.01"/>
    </timestep>
    <timestep time="91.00">
        <vehicle id="trip" x="1216.74" y="1369.25" angle="99.55" type="veh_passenger" speed="22.72" pos="3.71" lane="447326322#1_0" slope="0.00" acceleration="-0.18"/>
    </timestep>
    <timestep time="92.00">
        <vehicle id="trip" x="1239.06" y="1365.57" angle="99.35" type="veh_passenger" speed="22.62" pos="26.33" lane="447326322#1_0" slope="0.00" acceleration="-0.10"/>
    </timestep>
    <timestep time="93.00">
        <vehicle id="trip" x="1256.95" y="1362.62" angle="99.35" type="veh_passenger" speed="18.13" pos="44.46" lane="447326322#1_0" slope="0.00" acceleration="-4.49"/>
    </timestep>
    <timestep time="94.00">
        <vehicle id="trip" x="1271.28" y="1360.26" angle="99.35" type="veh_passenger" speed="14.52" pos="58.98" lane="447326322#1_0" slope="0.00" acceleration="-3.61"/>
    </timestep>
    <timestep time="95.00">
        <vehicle id="trip" x="1281.60" y="1358.56" angle="99.35" type="veh_passenger" speed="10.46" pos="69.44" lane="447326322#1_0" slope="0.00" acceleration="-4.06"/>
    </timestep>
    <timestep time="96.00">
        <vehicle id="trip" x="1286.76" y="1354.12" angle="140.28" type="veh_passenger" speed="7.17" pos="7.09" lane=":3366287705_2_0" slope="0.00" acceleration="-3.29"/>
    </timestep>
    <timestep time="97.00">
        <vehicle id="trip" x="1287.71" y="1347.71" angle="172.99" type="veh_passenger" speed="6.50" pos="3.21" lane="-329703621#8_0" slope="0.00" acceleration="-0.67"/>
    </timestep>
    <timestep time="98.00">
        <vehicle id="trip" x="1287.96" y="1344.81" angle="175.14" type="veh_passenger" speed="2.91" pos="6.12" lane="-329703621#8_0" slope="0.00" acceleration="-3.59"/>
    </timestep>
    <timestep time="99.00">
        <vehicle id="trip" x="1284.78" y="1344.45" angle="175.14" type="veh_passenger" speed="0.08" pos="6.20" lane="-329703621#8_0" slope="0.00" acceleration="-2.84"/>
    </timestep>
    <timestep time="100.00">
        <vehicle id="trip" x="1284.78" y="1344.45" angle="175.14" type="veh_passenger" speed="0.00" pos="6.20" lane="-329703621#8_0" slope="0.00" acceleration="-0.08"/>
    </timestep>
    <timestep time="101.00">
        <vehicle id="trip" x="1284.78" y="1344.45" angle="175.14" type="veh_passenger" speed="0.00" pos="6.20" lane="-329703621#8_0" slope="0.00" acceleration="0.00"/>
    </timestep>
    <timestep time="102.00">
        <vehicle id="trip" x="1284.78" y="1344.45" angle="175.14" type="veh_passenger" speed="0.00" pos="6.20" lane="-329703621#8_0" slope="0.00" acceleration="0.00"/>
    </timestep>
    <timestep time="103.00">
        <vehicle id="trip" x="1284.78" y="1344.45" angle="175.14" type="veh_passenger" speed="0.00" pos="6.20" lane="-329703621#8_0" slope="0.00" acceleration="0.00"/>
    </timestep>
    <timestep time="104.00">
        <vehicle id="trip" x="1284.78" y="1344.45" angle="175.14" type="veh_passenger" speed="0.00" pos="6.20" lane="-329703621#8_0" slope="0.00" acceleration="0.00"/>
    </timestep>
    <timestep time="105.00">
        <vehicle id="trip" x="1284.78" y="1344.45" angle="175.14" type="veh_passenger" speed="0.00" pos="6.20" lane="-329703621#8_0" slope="0.00" acceleration="0.00"/>
    </timestep>
    <timestep time="106.00">
        <vehicle id="trip" x="1284.78" y="1344.45" angle="175.14" type="veh_passenger" speed="0.00" pos="6.20" lane="-329703621#8_0" slope="0.00" acceleration="0.00"/>
    </timestep>
    <timestep time="107.00">
        <vehicle id="trip" x="1284.78" y="1344.45" angle="175.14" type="veh_passenger" speed="0.00" pos="6.20" lane="-329703621#8_0" slope="0.00" acceleration="0.00"/>
    </timestep>
    <timestep time="108.00">
        <vehicle id="trip" x="1284.78" y="1344.45" angle="175.14" type="veh_passenger" speed="0.00" pos="6.20" lane="-329703621#8_0" slope="0.00" acceleration="0.00"/>
    </timestep>
    <timestep time="109.00">
        <vehicle id="trip" x="1284.78" y="1344.45" angle="175.14" type="veh_passenger" speed="0.00" pos="6.20" lane="-329703621#8_0" slope="0.00" acceleration="0.00"/>
    </timestep>
    <timestep time="110.00">
        <vehicle id="trip" x="1284.78" y="1344.45" angle="175.14" type="veh_passenger" speed="0.00" pos="6.20" lane="-329703621#8_0" slope="0.00" acceleration="0.00"/>
    </timestep>
    <timestep time="111.00">
        <vehicle id="trip" x="1284.78" y="1344.45" angle="175.14" type="veh_passenger" speed="0.00" pos="6.20" lane="-329703621#8_0" slope="0.00" acceleration="0.00"/>
    </timestep>
    <timestep time="112.00">
        <vehicle id="trip" x="1284.78" y="1344.45" angle="175.14" type="veh_passenger" speed="0.00" pos="6.20" lane="-329703621#8_0" slope="0.00" acceleration="0.00"/>
    </timestep>
    <timestep time="113.00">
        <vehicle id="trip" x="1284.78" y="1344.45" angle="175.14" type="veh_passenger" speed="0.00" pos="6.20" lane="-329703621#8_0" slope="0.00" acceleration="0.00"/>
    </timestep>
    <timestep time="114.00">
        <vehicle id="trip" x="1284.78" y="1344.45" angle="175.14" type="veh_passenger" speed="0.00" pos="6.20" lane="-329703621#8_0" slope="0.00" acceleration="0.00"/>
    </timestep>
    <timestep time="115.00">
        <vehicle id="trip" x="1284.78" y="1344.45" angle="175.14" type="veh_passenger" speed="0.00" pos="6.20" lane="-329703621#8_0" slope="0.00" acceleration="0.00"/>
    </timestep>
    <timestep time="116.00">
        <vehicle id="trip" x="1284.78" y="1344.45" angle="175.14" type="veh_passenger" speed="0.00" pos="6.20" lane="-329703621#8_0" slope="0.00" acceleration="0.00"/>
    </timestep>
    <timestep time="117.00">
        <vehicle id="trip" x="1284.78" y="1344.45" angle="175.14" type="veh_passenger" speed="0.00" pos="6.20" lane="-329703621#8_0" slope="0.00" acceleration="0.00"/>
    </timestep>
    <timestep time="118.00">
        <vehicle id="trip" x="1284.78" y="1344.45" angle="175.14" type="veh_passenger" speed="0.00" pos="6.20" lane="-329703621#8_0" slope="0.00" acceleration="0.00"/>
    </timestep>
    <timestep time="119.00">
        <vehicle id="trip" x="1284.78" y="1344.45" angle="175.14" type="veh_passenger" speed="0.00" pos="6.20" lane="-329703621#8_0" slope="0.00" acceleration="0.00"/>
    </timestep>
    <timestep time="120.00">
        <vehicle id="trip" x="1284.78" y="1344.45" angle="175.14" type="veh_passenger" speed="0.00" pos="6.20" lane="-329703621#8_0" slope="0.00" acceleration="0.00"/>
    </timestep>
    <timestep time="121.00">
        <vehicle id="trip" x="1284.78" y="1344.45" angle="175.14" type="veh_passenger" speed="0.00" pos="6.20" lane="-329703621#8_0" slope="0.00" acceleration="0.00"/>
    </timestep>
    <timestep time="122.00">
        <vehicle id="trip" x="1284.78" y="1344.45" angle="175.14" type="veh_passenger" speed="0.00" pos="6.20" lane="-329703621#8_0" slope="0.00" acceleration="0.00"/>
    </timestep>
    <timestep time="123.00">
        <vehicle id="trip" x="1284.78" y="1344.45" angle="175.14" type="veh_passenger" speed="0.00" pos="6.20" lane="-329703621#8_0" slope="0.00" acceleration="0.00"/>
    </timestep>
    <timestep time="124.00">
        <vehicle id="trip" x="1284.78" y="1344.45" angle="175.14" type="veh_passenger" speed="0.00" pos="6.20" lane="-329703621#8_0" slope="0.00" acceleration="0.00"/>
    </timestep>
    <timestep time="125.00">
        <vehicle id="trip" x="1284.78" y="1344.45" angle="175.14" type="veh_passenger" speed="0.00" pos="6.20" lane="-329703621#8_0" slope="0.00" acceleration="0.00"/>
    </timestep>
    <timestep time="126.00">
        <vehicle id="trip" x="1284.78" y="1344.45" angle="175.14" type="veh_passenger" speed="0.00" pos="6.20" lane="-329703621#8_0" slope="0.00" acceleration="0.00"/>
    </timestep>
    <timestep time="127.00">
        <vehicle id="trip" x="1284.78" y="1344.45" angle="175.14" type="veh_passenger" speed="0.00" pos="6.20" lane="-329703621#8_0" slope="0.00" acceleration="0.00"/>
    </timestep>
    <timestep time="128.00">
        <vehicle id="trip" x="1284.78" y="1344.45" angle="175.14" type="veh_passenger" speed="0.00" pos="6.20" lane="-329703621#8_0" slope="0.00" acceleration="0.00"/>
    </timestep>
    <timestep time="129.00">
        <vehicle id="trip" x="1284.78" y="1344.45" angle="175.14" type="veh_passenger" speed="0.00" pos="6.20" lane="-329703621#8_0" slope="0.00" acceleration="0.00"/>
    </timestep>
    <timestep time="130.00">
        <vehicle id="trip" x="1284.78" y="1344.45" angle="175.14" type="veh_passenger" speed="0.00" pos="6.20" lane="-329703621#8_0" slope="0.00" acceleration="0.00"/>
    </timestep>
    <timestep time="131.00">
        <vehicle id="trip" x="1284.78" y="1344.45" angle="175.14" type="veh_passenger" speed="0.00" pos="6.20" lane="-329703621#8_0" slope="0.00" acceleration="0.00"/>
    </timestep>
    <timestep time="132.00">
        <vehicle id="trip" x="1284.78" y="1344.45" angle="175.14" type="veh_passenger" speed="0.00" pos="6.20" lane="-329703621#8_0" slope="0.00" acceleration="0.00"/>
    </timestep>
    <timestep time="133.00">
        <vehicle id="trip" x="1284.78" y="1344.45" angle="175.14" type="veh_passenger" speed="0.00" pos="6.20" lane="-329703621#8_0" slope="0.00" acceleration="0.00"/>
    </timestep>
    <timestep time="134.00">
        <vehicle id="trip" x="1284.78" y="1344.45" angle="175.14" type="veh_passenger" speed="0.00" pos="6.20" lane="-329703621#8_0" slope="0.00" acceleration="0.00"/>
    </timestep>
    <timestep time="135.00">
        <vehicle id="trip" x="1284.78" y="1344.45" angle="175.14" type="veh_passenger" speed="0.00" pos="6.20" lane="-329703621#8_0" slope="0.00" acceleration="0.00"/>
    </timestep>
    <timestep time="136.00">
        <vehicle id="trip" x="1284.78" y="1344.45" angle="175.14" type="veh_passenger" speed="0.00" pos="6.20" lane="-329703621#8_0" slope="0.00" acceleration="0.00"/>
    </timestep>
    <timestep time="137.00">
        <vehicle id="trip" x="1284.78" y="1344.45" angle="175.14" type="veh_passenger" speed="0.00" pos="6.20" lane="-329703621#8_0" slope="0.00" acceleration="0.00"/>
    </timestep>
    <timestep time="138.00">
        <vehicle id="trip" x="1284.78" y="1344.45" angle="175.14" type="veh_passenger" speed="0.00" pos="6.20" lane="-329703621#8_0" slope="0.00" acceleration="0.00"/>
    </timestep>
    <timestep time="139.00">
        <vehicle id="trip" x="1284.78" y="1344.45" angle="175.14" type="veh_passenger" speed="0.00" pos="6.20" lane="-329703621#8_0" slope="0.00" acceleration="0.00"/>
    </timestep>
    <timestep time="140.00">
        <vehicle id="trip" x="1284.78" y="1344.45" angle="175.14" type="veh_passenger" speed="0.00" pos="6.20" lane="-329703621#8_0" slope="0.00" acceleration="0.00"/>
    </timestep>
    <timestep time="141.00">
        <vehicle id="trip" x="1284.78" y="1344.45" angle="175.14" type="veh_passenger" speed="0.00" pos="6.20" lane="-329703621#8_0" slope="0.00" acceleration="0.00"/>
    </timestep>
    <timestep time="142.00">
        <vehicle id="trip" x="1284.78" y="1344.45" angle="175.14" type="veh_passenger" speed="0.00" pos="6.20" lane="-329703621#8_0" slope="0.00" acceleration="0.00"/>
    </timestep>
    <timestep time="143.00">