<?xml version="1.0" encoding="UTF-8"?>

<!-- generated on 2024-09-19 11:27:51 by Eclipse SUMO sumo Version 1.20.0
<configuration xmlns:xsi="http://www.w3.org/2001/XMLSchema-instance" xsi:noNamespaceSchemaLocation="http://sumo.dlr.de/xsd/sumoConfiguration.xsd">

    <input>
        <net-file value="osm.net.xml.gz"/>
        <route-files value="osm.passenger.trips.xml"/>
        <additional-files value="park.add.xml"/>
    </input>

    <output>
        <fcd-output value="output/fcd.out.xml"/>
        <fcd-output.acceleration value="true"/>
    </output>

    <processing>
        <ignore-route-errors value="true"/>
        <tls.actuated.jam-threshold value="30"/>
    </processing>

    <routing>
        <device.rerouting.adaptation-steps value="18"/>
        <device.rerouting.adaptation-interval value="10"/>
    </routing>

    <report>
        <verbose value="true"/>
        <duration-log.statistics value="true"/>
        <no-step-log value="true"/>
    </report>

    <gui_only>
        <gui-settings-file value="osm.view.xml"/>
    </gui_only>

</configuration>
-->

<fcd-export xmlns:xsi="http://www.w3.org/2001/XMLSchema-instance" xsi:noNamespaceSchemaLocation="http://sumo.dlr.de/xsd/fcd_file.xsd">
    <timestep time="0.00"/>
    <timestep time="1.00"/>
    <timestep time="2.00"/>
    <timestep time="3.00"/>
    <timestep time="4.00"/>
    <timestep time="5.00"/>
    <timestep time="6.00"/>
    <timestep time="7.00"/>
    <timestep time="8.00"/>
    <timestep time="9.00"/>
    <timestep time="10.00">
        <vehicle id="trip" x="1827.27" y="1473.92" angle="181.09" type="veh_passenger" speed="0.00" pos="5.10" lane="begin_0" slope="0.00" acceleration="0.00"/>
    </timestep>
    <timestep time="11.00">
        <vehicle id="trip" x="1827.25" y="1472.54" angle="181.09" type="veh_passenger" speed="1.38" pos="6.48" lane="begin_0" slope="0.00" acceleration="1.38"/>
    </timestep>
    <timestep time="12.00">
        <vehicle id="trip" x="1827.17" y="1468.65" angle="181.09" type="veh_passenger" speed="3.90" pos="10.37" lane="begin_0" slope="0.00" acceleration="2.52"/>
    </timestep>
    <timestep time="13.00">
        <vehicle id="trip" x="1827.05" y="1462.40" angle="181.09" type="veh_passenger" speed="6.25" pos="16.62" lane="begin_0" slope="0.00" acceleration="2.35"/>
    </timestep>
    <timestep time="14.00">
        <vehicle id="trip" x="1826.89" y="1453.95" angle="181.09" type="veh_passenger" speed="8.46" pos="25.08" lane="begin_0" slope="0.00" acceleration="2.21"/>
    </timestep>
    <timestep time="15.00">
        <vehicle id="trip" x="1826.70" y="1444.13" angle="181.09" type="veh_passenger" speed="9.82" pos="34.90" lane="begin_0" slope="0.00" acceleration="1.37"/>
    </timestep>
    <timestep time="16.00">
        <vehicle id="trip" x="1826.47" y="1431.97" angle="181.09" type="veh_passenger" speed="12.16" pos="47.06" lane="begin_0" slope="0.00" acceleration="2.33"/>
    </timestep>
    <timestep time="17.00">
        <vehicle id="trip" x="1826.21" y="1418.15" angle="181.09" type="veh_passenger" speed="13.82" pos="60.88" lane="begin_0" slope="0.00" acceleration="1.67"/>
    </timestep>
    <timestep time="18.00">
        <vehicle id="trip" x="1825.94" y="1404.03" angle="181.09" type="veh_passenger" speed="14.12" pos="75.01" lane="begin_0" slope="0.00" acceleration="0.30"/>
    </timestep>
    <timestep time="19.00">
        <vehicle id="trip" x="1825.68" y="1390.16" angle="181.09" type="veh_passenger" speed="13.87" pos="88.88" lane="begin_0" slope="0.00" acceleration="-0.25"/>
    </timestep>
    <timestep time="20.00">
        <vehicle id="trip" x="1825.40" y="1375.49" angle="181.09" type="veh_passenger" speed="14.67" pos="103.55" lane="begin_0" slope="0.00" acceleration="0.80"/>
    </timestep>
    <timestep time="21.00">
        <vehicle id="trip" x="1825.12" y="1361.17" angle="181.09" type="veh_passenger" speed="14.33" pos="117.88" lane="begin_0" slope="0.00" acceleration="-0.34"/>
    </timestep>
    <timestep time="22.00">
        <vehicle id="trip" x="1824.86" y="1347.15" angle="181.09" type="veh_passenger" speed="14.02" pos="131.90" lane="begin_0" slope="0.00" acceleration="-0.31"/>
    </timestep>
    <timestep time="23.00">
        <vehicle id="trip" x="1824.59" y="1333.31" angle="181.09" type="veh_passenger" speed="13.84" pos="145.74" lane="begin_0" slope="0.00" acceleration="-0.19"/>
    </timestep>
    <timestep time="24.00">
        <vehicle id="trip" x="1824.32" y="1318.85" angle="181.09" type="veh_passenger" speed="14.47" pos="160.21" lane="begin_0" slope="0.00" acceleration="0.63"/>
    </timestep>
    <timestep time="25.00">
        <vehicle id="trip" x="1824.00" y="1304.54" angle="181.61" type="veh_passenger" speed="14.31" pos="174.52" lane="begin_0" slope="0.00" acceleration="-0.15"/>
    </timestep>
    <timestep time="26.00">
        <vehicle id="trip" x="1823.46" y="1290.22" angle="182.14" type="veh_passenger" speed="14.33" pos="188.85" lane="begin_0" slope="0.00" acceleration="0.02"/>
    </timestep>
    <timestep time="27.00">
        <vehicle id="trip" x="1822.91" y="1275.60" angle="182.19" type="veh_passenger" speed="14.63" pos="0.11" lane="919351676#4_0" slope="0.00" acceleration="0.30"/>
    </timestep>
    <timestep time="28.00">
        <vehicle id="trip" x="1822.37" y="1261.34" angle="182.15" type="veh_passenger" speed="14.27" pos="14.38" lane="919351676#4_0" slope="0.00" acceleration="-0.36"/>
    </timestep>
    <timestep time="29.00">
        <vehicle id="trip" x="1821.86" y="1247.82" angle="182.15" type="veh_passenger" speed="13.53" pos="27.91" lane="919351676#4_0" slope="0.00" acceleration="-0.74"/>
    </timestep>
    <timestep time="30.00">
        <vehicle id="trip" x="1821.41" y="1235.59" angle="182.15" type="veh_passenger" speed="12.24" pos="40.15" lane="919351676#4_0" slope="0.00" acceleration="-1.29"/>
    </timestep>
    <timestep time="31.00">
        <vehicle id="trip" x="1821.10" y="1227.34" angle="182.15" type="veh_passenger" speed="8.25" pos="48.40" lane="919351676#4_0" slope="0.00" acceleration="-3.99"/>
    </timestep>
    <timestep time="32.00">
        <vehicle id="trip" x="1820.93" y="1222.79" angle="182.15" type="veh_passenger" speed="4.56" pos="52.96" lane="919351676#4_0" slope="0.00" acceleration="-3.69"/>
    </timestep>
    <timestep time="33.00">
        <vehicle id="trip" x="1821.75" y="1216.25" angle="170.00" type="veh_passenger" speed="6.68" pos="5.21" lane=":3005759912_1_0" slope="0.00" acceleration="2.12"/>
    </timestep>
    <timestep time="34.00">
        <vehicle id="trip" x="1827.32" y="1213.15" angle="108.06" type="veh_passenger" speed="6.94" pos="12.15" lane=":3005759912_1_0" slope="0.00" acceleration="0.26"/>
    </timestep>
    <timestep time="35.00">
        <vehicle id="trip" x="1834.75" y="1214.67" angle="76.05" type="veh_passenger" speed="7.61" pos="4.26" lane="280730834#5_0" slope="0.00" acceleration="0.67"/>
    </timestep>
    <timestep time="36.00">
        <vehicle id="trip" x="1843.40" y="1217.02" angle="74.74" type="veh_passenger" speed="8.96" pos="13.22" lane="280730834#5_0" slope="0.00" acceleration="1.36"/>
    </timestep>
    <timestep time="37.00">
        <vehicle id="trip" x="1853.49" y="1219.79" angle="74.65" type="veh_passenger" speed="10.47" pos="23.69" lane="280730834#5_0" slope="0.00" acceleration="1.51"/>
    </timestep>
    <timestep time="38.00">
        <vehicle id="trip" x="1862.60" y="1222.29" angle="74.65" type="veh_passenger" speed="9.44" pos="33.13" lane="280730834#5_0" slope="0.00" acceleration="-1.02"/>
    </timestep>
    <timestep time="39.00">
        <vehicle id="trip" x="1868.49" y="1223.54" angle="78.75" type="veh_passenger" speed="6.04" pos="2.64" lane=":cluster_2847896604_3005759911_12_0" slope="0.00" acceleration="-3.41"/>
    </timestep>
    <timestep time="40.00">
        <vehicle id="trip" x="1871.00" y="1219.32" angle="155.02" type="veh_passenger" speed="5.69" pos="8.32" lane=":cluster_2847896604_3005759911_12_0" slope="0.00" acceleration="-0.35"/>
    </timestep>
    <timestep time="41.00">
        <vehicle id="trip" x="1870.05" y="1213.91" angle="190.61" type="veh_passenger" speed="5.50" pos="4.64" lane="280730902#0_0" slope="0.00" acceleration="-0.19"/>
    </timestep>
    <timestep time="42.00">
        <vehicle id="trip" x="1868.73" y="1207.23" angle="191.16" type="veh_passenger" speed="6.82" pos="11.46" lane="280730902#0_0" slope="0.00" acceleration="1.32"/>
    </timestep>
    <timestep time="43.00">
        <vehicle id="trip" x="1867.05" y="1198.70" angle="191.18" type="veh_passenger" speed="8.70" pos="20.16" lane="280730902#0_0" slope="0.00" acceleration="1.88"/>
    </timestep>
    <timestep time="44.00">
        <vehicle id="trip" x="1864.97" y="1188.18" angle="191.15" type="veh_passenger" speed="10.72" pos="30.88" lane="280730902#0_0" slope="0.00" acceleration="2.02"/>
    </timestep>
    <timestep time="45.00">
        <vehicle id="trip" x="1862.57" y="1176.01" angle="191.15" type="veh_passenger" speed="12.40" pos="43.28" lane="280730902#0_0" slope="0.00" acceleration="1.68"/>
    </timestep>
    <timestep time="46.00">
        <vehicle id="trip" x="1859.79" y="1161.87" angle="191.15" type="veh_passenger" speed="14.41" pos="57.69" lane="280730902#0_0" slope="0.00" acceleration="2.01"/>
    </timestep>
    <timestep time="47.00">
        <vehicle id="trip" x="1857.02" y="1147.84" angle="191.15" type="veh_passenger" speed="14.29" pos="71.98" lane="280730902#0_0" slope="0.00" acceleration="-0.12"/>
    </timestep>
    <timestep time="48.00">
        <vehicle id="trip" x="1854.20" y="1133.51" angle="191.15" type="veh_passenger" speed="14.61" pos="86.59" lane="280730902#0_0" slope="0.00" acceleration="0.31"/>
    </timestep>
    <timestep time="49.00">
        <vehicle id="trip" x="1851.54" y="1119.92" angle="191.07" type="veh_passenger" speed="13.85" pos="100.44" lane="280730902#0_0" slope="0.00" acceleration="-0.76"/>
    </timestep>
    <timestep time="50.00">
        <vehicle id="trip" x="1848.79" y="1105.88" angle="191.07" type="veh_passenger" speed="14.31" pos="114.75" lane="280730902#0_0" slope="0.00" acceleration="0.46"/>
    </timestep>
    <timestep time="51.00">
        <vehicle id="trip" x="1846.02" y="1091.73" angle="191.07" type="veh_passenger" speed="14.41" pos="129.16" lane="280730902#0_0" slope="0.00" acceleration="0.10"/>
    </timestep>
    <timestep time="52.00">
        <vehicle id="trip" x="1843.25" y="1077.60" angle="191.07" type="veh_passenger" speed="14.40" pos="143.56" lane="280730902#0_0" slope="0.00" acceleration="-0.01"/>
    </timestep>
    <timestep time="53.00">
        <vehicle id="trip" x="1841.31" y="1067.70" angle="191.07" type="veh_passenger" speed="10.09" pos="153.65" lane="280730902#0_0" slope="0.00" acceleration="-4.31"/>
    </timestep>
    <timestep time="54.00">
        <vehicle id="trip" x="1837.72" y="1063.32" angle="223.84" type="veh_passenger" speed="6.03" pos="6.00" lane=":5340926496_0_0" slope="0.00" acceleration="-4.06"/>
    </timestep>
    <timestep time="55.00">
        <vehicle id="trip" x="1831.51" y="1063.81" angle="277.23" type="veh_passenger" speed="6.29" pos="3.40" lane="-315499519_0" slope="0.00" acceleration="0.26"/>
    </timestep>
    <timestep time="56.00">
        <vehicle id="trip" x="1822.88" y="1065.31" angle="279.85" type="veh_passenger" speed="8.75" pos="12.15" lane="-315499519_0" slope="0.00" acceleration="2.47"/>
    </timestep>
    <timestep time="57.00">
        <vehicle id="trip" x="1812.76" y="1067.07" angle="279.85" type="veh_passenger" speed="10.28" pos="22.43" lane="-315499519_0" slope="0.00" acceleration="1.52"/>
    </timestep>
    <timestep time="58.00">
        <vehicle id="trip" x="1800.61" y="1069.17" angle="279.85" type="veh_passenger" speed="12.33" pos="34.76" lane="-315499519_0" slope="0.00" acceleration="2.05"/>
    </timestep>
    <timestep time="59.00">
        <vehicle id="trip" x="1786.53" y="1071.62" angle="279.85" type="veh_passenger" speed="14.29" pos="49.05" lane="-315499519_0" slope="0.00" acceleration="1.96"/>
    </timestep>
    <timestep time="60.00">
        <vehicle id="trip" x="1770.44" y="1074.41" angle="279.85" type="veh_passenger" speed="16.33" pos="65.38" lane="-315499519_0" slope="0.00" acceleration="2.04"/>
    </timestep>
    <timestep time="61.00">
        <vehicle id="trip" x="1752.68" y="1077.49" angle="279.85" type="veh_passenger" speed="18.03" pos="83.40" lane="-315499519_0" slope="0.00" acceleration="1.70"/>
    </timestep>
    <timestep time="62.00">
        <vehicle id="trip" x="1732.70" y="1080.96" angle="279.85" type="veh_passenger" speed="20.28" pos="103.69" lane="-315499519_0" slope="0.00" acceleration="2.26"/>
    </timestep>
    <timestep time="63.00">
        <vehicle id="trip" x="1711.32" y="1084.67" angle="279.85" type="veh_passenger" speed="21.69" pos="125.38" lane="-315499519_0" slope="0.00" acceleration="1.41"/>
    </timestep>
    <timestep time="64.00">
        <vehicle id="trip" x="1687.68" y="1082.60" angle="260.91" type="veh_passenger" speed="23.96" pos="149.34" lane="-315499519_0" slope="0.00" acceleration="2.26"/>
    </timestep>
    <timestep time="65.00">
        <vehicle id="trip" x="1663.52" y="1075.14" angle="252.60" type="veh_passenger" speed="25.29" pos="174.63" lane="-315499519_0" slope="0.00" acceleration="1.33"/>
    </timestep>
    <timestep time="66.00">
        <vehicle id="trip" x="1642.63" y="1068.58" angle="252.57" type="veh_passenger" speed="21.90" pos="2.66" lane="-640295915#3_0" slope="0.00" acceleration="-3.39"/>
    </timestep>
    <timestep time="67.00">
        <vehicle id="trip" x="1626.03" y="1063.37" angle="252.58" type="veh_passenger" speed="17.40" pos="20.06" lane="-640295915#3_0" slope="0.00" acceleration="-4.50"/>
    </timestep>
    <timestep time="68.00">
        <vehicle id="trip" x="1613.72" y="1059.51" angle="252.58" type="veh_passenger" speed="12.90" pos="32.96" lane="-640295915#3_0" slope="0.00" acceleration="-4.50"/>
    </timestep>
    <timestep time="69.00">
        <vehicle id="trip" x="1605.70" y="1056.99" angle="252.58" type="veh_passenger" speed="8.40" pos="41.36" lane="-640295915#3_0" slope="0.00" acceleration="-4.50"/>
    </timestep>
    <timestep time="70.00">
        <vehicle id="trip" x="1601.98" y="1055.83" angle="252.58" type="veh_passenger" speed="3.90" pos="45.26" lane="-640295915#3_0" slope="0.00" acceleration="-4.50"/>
    </timestep>
    <timestep time="71.00">
        <vehicle id="trip" x="1601.54" y="1055.69" angle="252.58" type="veh_passenger" speed="0.46" pos="45.73" lane="-640295915#3_0" slope="0.00" acceleration="-3.44"/>
    </timestep>
    <timestep time="72.00">
        <vehicle id="trip" x="1598.83" y="1054.31" angle="246.72" type="veh_passenger" speed="3.06" pos="2.04" lane=":2847427711_1_0" slope="0.00" acceleration="2.60"/>
    </timestep>
    <timestep time="73.00">
        <vehicle id="trip" x="1597.02" y="1049.35" angle="198.15" type="veh_passenger" speed="5.40" pos="5.19" lane=":2847427711_6_0" slope="0.00" acceleration="2.34"/>
    </timestep>
    <timestep time="74.00">
        <vehicle id="trip" x="1597.45" y="1042.55" angle="175.07" type="veh_passenger" speed="6.84" pos="2.33" lane="918954502#0_0" slope="0.00" acceleration="1.43"/>
    </timestep>
    <timestep time="75.00">
        <vehicle id="trip" x="1598.63" y="1033.23" angle="172.82" type="veh_passenger" speed="9.39" pos="11.73" lane="918954502#0_0" slope="0.00" acceleration="2.55"/>
    </timestep>
    <timestep time="76.00">
        <vehicle id="trip" x="1600.12" y="1021.40" angle="172.82" type="veh_passenger" speed="11.92" pos="23.64" lane="918954502#0_0" slope="0.00" acceleration="2.53"/>
    </timestep>
    <timestep time="77.00">
        <vehicle id="trip" x="1601.85" y="1007.60" angle="172.82" type="veh_passenger" speed="13.91" pos="37.55" lane="918954502#0_0" slope="0.00" acceleration="1.99"/>
    </timestep>
    <timestep time="78.00">
        <vehicle id="trip" x="1603.87" y="991.64" angle="172.82" type="veh_passenger" speed="16.09" pos="53.64" lane="918954502#0_0" slope="0.00" acceleration="2.18"/>
    </timestep>
    <timestep time="79.00">
        <vehicle id="trip" x="1606.18" y="973.28" angle="172.82" type="veh_passenger" speed="18.50" pos="72.14" lane="918954502#0_0" slope="0.00" acceleration="2.40"/>
    </timestep>
    <timestep time="80.00">
        <vehicle id="trip" x="1608.74" y="952.94" angle="172.82" type="veh_passenger" speed="20.50" pos="92.64" lane="918954502#0_0" slope="0.00" acceleration="2.01"/>
    </timestep>
    <timestep time="81.00">
        <vehicle id="trip" x="1611.60" y="930.26" angle="172.82" type="veh_passenger" speed="22.86" pos="115.50" lane="918954502#0_0" slope="0.00" acceleration="2.36"/>
    </timestep>
    <timestep time="82.00">
        <vehicle id="trip" x="1614.07" y="911.79" angle="172.18" type="veh_passenger" speed="18.64" pos="3.57" lane="918954502#1_0" slope="0.00" acceleration="-4.21"/>
    </timestep>
    <timestep time="83.00">
        <vehicle id="trip" x="1616.02" y="897.78" angle="172.07" type="veh_passenger" speed="14.14" pos="17.72" lane="918954502#1_0" slope="0.00" acceleration="-4.50"/>
    </timestep>
    <timestep time="84.00">
        <vehicle id="trip" x="1617.38" y="888.02" angle="172.07" type="veh_passenger" speed="9.86" pos="27.58" lane="918954502#1_0" slope="0.00" acceleration="-4.28"/>
    </timestep>
    <timestep time="85.00">
        <vehicle id="trip" x="1615.02" y="882.48" angle="210.00" type="veh_passenger" speed="6.44" pos="5.94" lane=":2847427720_2_0" slope="0.00" acceleration="-3.42"/>
    </timestep>
    <timestep time="86.00">
        <vehicle id="trip" x="1608.39" y="879.82" angle="251.08" type="veh_passenger" speed="7.19" pos="3.29" lane="1212125301#0_0" slope="0.00" acceleration="0.76"/>
    </timestep>
    <timestep time="87.00">
        <vehicle id="trip" x="1600.04" y="877.26" angle="252.98" type="veh_passenger" speed="8.74" pos="12.02" lane="1212125301#0_0" slope="0.00" acceleration="1.54"/>
    </timestep>
    <timestep time="88.00">
        <vehicle id="trip" x="1590.34" y="874.30" angle="252.98" type="veh_passenger" speed="10.14" pos="22.16" lane="1212125301#0_0" slope="0.00" acceleration="1.40"/>
    </timestep>
    <timestep time="89.00">
        <vehicle id="trip" x="1578.70" y="870.73" angle="252.98" type="veh_passenger" speed="12.18" pos="34.34" lane="1212125301#0_0" slope="0.00" acceleration="2.04"/>
    </timestep>
    <timestep time="90.00">
        <vehicle id="trip" x="1565.56" y="866.71" angle="252.98" type="veh_passenger" speed="13.74" pos="48.08" lane="1212125301#0_0" slope="0.00" acceleration="1.56"/>
    </timestep>
    <timestep time="91.00">
        <vehicle id="trip" x="1550.76" y="862.18" angle="252.98" type="veh_passenger" speed="15.47" pos="63.55" lane="1212125301#0_0" slope="0.00" acceleration="1.72"/>
    </timestep>
    <timestep time="92.00">
        <vehicle id="trip" x="1534.31" y="857.15" angle="252.98" type="veh_passenger" speed="17.21" pos="80.76" lane="1212125301#0_0" slope="0.00" acceleration="1.74"/>
    </timestep>
    <timestep time="93.00">
        <vehicle id="trip" x="1515.65" y="851.44" angle="253.01" type="veh_passenger" speed="19.51" pos="9.68" lane=":2847896666_1_0" slope="0.00" acceleration="2.30"/>
    </timestep>
    <timestep time="94.00">
        <vehicle id="trip" x="1495.08" y="845.15" angle="252.98" type="veh_passenger" speed="21.50" pos="16.62" lane="1212125301#1_0" slope="0.00" acceleration="1.99"/>
    </timestep>
    <timestep time="95.00">
        <vehicle id="trip" x="1472.37" y="838.19" angle="252.98" type="veh_passenger" speed="23.75" pos="40.37" lane="1212125301#1_0" slope="0.00" acceleration="2.25"/>
    </timestep>
    <timestep time="96.00">
        <vehicle id="trip" x="1447.88" y="830.68" angle="253.01" type="veh_passenger" speed="25.61" pos="7.37" lane="1212125301#2_0" slope="0.00" acceleration="1.86"/>
    </timestep>
    <timestep time="97.00">
        <vehicle id="trip" x="1421.87" y="822.72" angle="252.99" type="veh_passenger" speed="27.19" pos="14.37" lane="1212125301#3_0" slope="0.00" acceleration="1.58"/>
    </timestep>
    <timestep time="98.00">
        <vehicle id="trip" x="1394.56" y="814.36" angle="252.96" type="veh_passenger" speed="28.57" pos="7.27" lane=":2847427723_1_0" slope="0.00" acceleration="1.38"/>
    </timestep>
    <timestep time="99.00">
        <vehicle id="trip" x="1366.61" y="805.80" angle="252.97" type="veh_passenger" speed="29.22" pos="25.05" lane="280671207#0_0" slope="0.00" acceleration="0.65"/>
    </timestep>
    <timestep time="100.00">
        <vehicle id="trip" x="1339.51" y="797.51" angle="252.99" type="veh_passenger" speed="28.34" pos="13.17" lane=":2847427725_1_0" slope="0.00" acceleration="-0.88"/>
    </timestep>
    <timestep time="101.00">
        <vehicle id="trip" x="1312.07" y="789.10" angle="252.98" type="veh_passenger" speed="28.70" pos="27.14" lane="280671207#1_0" slope="0.00" acceleration="0.36"/>
    </timestep>
    <timestep time="102.00">
        <vehicle id="trip" x="1285.06" y="780.84" angle="252.98" type="veh_passenger" speed="28.25" pos="55.38" lane="280671207#1_0" slope="0.00" acceleration="-0.45"/>
    </timestep>
    <timestep time="103.00">
        <vehicle id="trip" x="1256.91" y="772.21" angle="252.98" type="veh_passenger" speed="29.45" pos="84.83" lane="280671207#1_0" slope="0.00" acceleration="1.20"/>
    </timestep>
    <timestep time="104.00">
        <vehicle id="trip" x="1228.75" y="763.59" angle="252.98" type="veh_passenger" speed="29.45" pos="114.28" lane="280671207#1_0" slope="0.00" acceleration="0.00"/>
    </timestep>
    <timestep time="105.00">
        <vehicle id="trip" x="1201.02" y="755.11" angle="252.98" type="veh_passenger" speed="28.99" pos="17.02" lane="280671207#2_0" slope="0.00" acceleration="-0.45"/>
    </timestep>
    <timestep time="106.00">
        <vehicle id="trip" x="1174.07" y="746.85" angle="252.98" type="veh_passenger" speed="28.19" pos="45.21" lane="280671207#2_0" slope="0.00" acceleration="-0.81"/>
    </timestep>
    <timestep time="107.00">
        <vehicle id="trip" x="1146.43" y="738.39" angle="252.98" type="veh_passenger" speed="28.91" pos="74.12" lane="280671207#2_0" slope="0.00" acceleration="0.72"/>
    </timestep>
    <timestep time="108.00">
        <vehicle id="trip" x="1119.23" y="730.06" angle="252.98" type="veh_passenger" speed="28.44" pos="102.56" lane="280671207#2_0" slope="0.00" acceleration="-0.46"/>
    </timestep>
    <timestep time="109.00">
        <vehicle id="trip" x="1095.49" y="722.79" angle="252.98" type="veh_passenger" speed="24.83" pos="127.39" lane="280671207#2_0" slope="0.00" acceleration="-3.61"/>
    </timestep>
    <timestep time="110.00">
        <vehicle id="trip" x="1075.26" y="716.60" angle="252.98" type="veh_passenger" speed="21.15" pos="148.54" lane="280671207#2_0" slope="0.00" acceleration="-3.68"/>
    </timestep>
    <timestep time="111.00">
        <vehicle id="trip" x="1059.34" y="711.72" angle="252.98" type="veh_passenger" speed="16.65" pos="165.19" lane="280671207#2_0" slope="0.00" acceleration="-4.50"/>
    </timestep>
    <timestep time="112.00">
        <vehicle id="trip" x="1047.72" y="708.17" angle="252.98" type="veh_passenger" speed="12.15" pos="177.35" lane="280671207#2_0" slope="0.00" acceleration="-4.50"/>
    </timestep>
    <timestep time="113.00">
        <vehicle id="trip" x="1040.41" y="705.93" angle="252.98" type="veh_passenger" speed="7.65" pos="185.00" lane="280671207#2_0" slope="0.00" acceleration="-4.50"/>
    </timestep>
    <timestep time="114.00">
        <vehicle id="trip" x="1037.21" y="704.95" angle="252.98" type="veh_passenger" speed="3.34" pos="188.34" lane="280671207#2_0" slope="0.00" acceleration="-4.31"/>
    </timestep>
    <timestep time="115.00">
        <vehicle id="trip" x="1037.10" y="704.91" angle="252.98" type="veh_passenger" speed="0.11" pos="188.45" lane="280671207#2_0" slope="0.00" acceleration="-3.23"/>
    </timestep>
    <timestep time="116.00">
        <vehicle id="trip" x="1037.07" y="704.91" angle="252.98" type="veh_passenger" speed="0.03" pos="188.48" lane="280671207#2_0" slope="0.00" acceleration="-0.08"/>
    </timestep>
    <timestep time="117.00">
        <vehicle id="trip" x="1037.07" y="704.90" angle="252.98" type="veh_passenger" speed="0.01" pos="188.49" lane="280671207#2_0" slope="0.00" acceleration="-0.02"/>
    </timestep>
    <timestep time="118.00">
        <vehicle id="trip" x="1037.07" y="704.90" angle="252.98" type="veh_passenger" speed="0.00" pos="188.49" lane="280671207#2_0" slope="0.00" acceleration="-0.00"/>
    </timestep>
    <timestep time="119.00">
        <vehicle id="trip" x="1037.07" y="704.90" angle="252.98" type="veh_passenger" speed="0.00" pos="188.49" lane="280671207#2_0" slope="0.00" acceleration="-0.00"/>
    </timestep>
    <timestep time="120.00">
        <vehicle id="trip" x="1034.81" y="704.41" angle="255.13" type="veh_passenger" speed="2.31" pos="1.31" lane=":2847432206_0_0" slope="0.00" acceleration="2.31"/>
    </timestep>
    <timestep time="121.00">
        <vehicle id="trip" x="1031.20" y="705.18" angle="277.18" type="veh_passenger" speed="3.86" pos="5.18" lane=":2847432206_0_0" slope="0.00" acceleration="1.55"/>
    </timestep>
    <timestep time="122.00">
        <vehicle id="trip" x="1028.69" y="709.95" angle="334.25" type="veh_passenger" speed="5.51" pos="1.66" lane="324342191#0_0" slope="0.00" acceleration="1.64"/>
    </timestep>
    <timestep time="123.00">
        <vehicle id="trip" x="1026.59" y="717.11" angle="343.63" type="veh_passenger" speed="7.46" pos="9.12" lane="324342191#0_0" slope="0.00" acceleration="1.95"/>
    </timestep>
    <timestep time="124.00">
        <vehicle id="trip" x="1023.76" y="726.75" angle="343.63" type="veh_passenger" speed="10.05" pos="19.16" lane="324342191#0_0" slope="0.00" acceleration="2.59"/>
    </timestep>
    <timestep time="125.00">
        <vehicle id="trip" x="1020.49" y="737.88" angle="343.63" type="veh_passenger" speed="11.60" pos="30.76" lane="324342191#0_0" slope="0.00" acceleration="1.55"/>
    </timestep>
    <timestep time="126.00">
        <vehicle id="trip" x="1016.83" y="750.35" angle="343.63" type="veh_passenger" speed="13.00" pos="43.76" lane="324342191#0_0" slope="0.00" acceleration="1.40"/>
    </timestep>
    <timestep time="127.00">
        <vehicle id="trip" x="1012.77" y="764.16" angle="343.63" type="veh_passenger" speed="14.40" pos="58.16" lane="324342191#0_0" slope="0.00" acceleration="1.40"/>
    </timestep>
    <timestep time="128.00">
        <vehicle id="trip" x="1008.12" y="780.02" angle="343.64" type="veh_passenger" speed="16.52" pos="1.61" lane=":2847432204_1_0" slope="0.00" acceleration="2.12"/>
    </timestep>
    <timestep time="129.00">
        <vehicle id="trip" x="1002.74" y="798.36" angle="343.67" type="veh_passenger" speed="19.12" pos="9.60" lane="324342191#1_0" slope="0.00" acceleration="2.59"/>
    </timestep>
    <timestep time="130.00">
        <vehicle id="trip" x="997.12" y="817.56" angle="343.67" type="veh_passenger" speed="20.00" pos="29.60" lane="324342191#1_0" slope="0.00" acceleration="0.88"/>
    </timestep>
    <timestep time="131.00">
        <vehicle id="trip" x="992.51" y="833.29" angle="343.67" type="veh_passenger" speed="16.39" pos="45.99" lane="324342191#1_0" slope="0.00" acceleration="-3.62"/>
    </timestep>
    <timestep time="132.00">
        <vehicle id="trip" x="989.14" y="844.77" angle="343.67" type="veh_passenger" speed="11.97" pos="57.95" lane="324342191#1_0" slope="0.00" acceleration="-4.42"/>
    </timestep>
    <timestep time="133.00">
        <vehicle id="trip" x="987.01" y="852.06" angle="343.67" type="veh_passenger" speed="7.59" pos="65.55" lane="324342191#1_0" slope="0.00" acceleration="-4.37"/>
    </timestep>
    <timestep time="134.00">
        <vehicle id="trip" x="986.14" y="855.03" angle="343.66" type="veh_passenger" speed="3.09" pos="68.64" lane="324342191#1_0" slope="0.00" acceleration="-4.50"/>
    </timestep>
    <timestep time="135.00">
        <vehicle id="trip" x="985.97" y="855.60" angle="343.66" type="veh_passenger" speed="0.60" pos="69.24" lane="324342191#1_0" slope="0.00" acceleration="-2.50"/>
    </timestep>
    <timestep time="136.00">
        <vehicle id="trip" x="985.93" y="855.75" angle="343.66" type="veh_passenger" speed="0.16" pos="69.40" lane="324342191#1_0" slope="0.00" acceleration="-0.44"/>
    </timestep>
    <timestep time="137.00">
        <vehicle id="trip" x="985.89" y="855.88" angle="343.66" type="veh_passenger" speed="0.13" pos="69.53" lane="324342191#1_0" slope="0.00" acceleration="-0.03"/>
    </timestep>
    <timestep time="138.00">
        <vehicle id="trip" x="985.88" y="855.89" angle="343.66" type="veh_passenger" speed="0.01" pos="69.54" lane="324342191#1_0" slope="0.00" acceleration="-0.12"/>
    </timestep>
    <timestep time="139.00">
        <vehicle id="trip" x="985.88" y="855.90" angle="343.66" type="veh_passenger" speed="0.01" pos="69.55" lane="324342191#1_0" slope="0.00" acceleration="-0.01"/>
    </timestep>
    <timestep time="140.00">
        <vehicle id="trip" x="985.88" y="855.90" angle="343.66" type="veh_passenger" speed="0.00" pos="69.55" lane="324342191#1_0" slope="0.00" acceleration="-0.01"/>
    </timestep>
    <timestep time="141.00">
        <vehicle id="trip" x="985.88" y="855.90" angle="343.66" type="veh_passenger" speed="0.00" pos="69.55" lane="324342191#1_0" slope="0.00" acceleration="-0.00"/>
    </timestep>
    <timestep time="142.00">
        <vehicle id="trip" x="985.88" y="855.90" angle="343.66" type="veh_passenger" speed="0.00" pos="69.55" lane="324342191#1_0" slope="0.00" acceleration="0.00"/>
    </timestep>
    <timestep time="143.00">
        <vehicle id="trip" x="985.88" y="855.90" angle="343.66" type="veh_passenger" speed="0.00" pos="69.55" lane="324342191#1_0" slope="0.00" acceleration="-0.00"/>
    </timestep>